32
Lattice="4.48811 0.0 0.0 0.5078869718232268 8.583377040300178 0.0 1.4821884837050978 3.4587716955999963 5.875604730279965" Properties=species:S:1:pos:R:3:spacegroup_kinds:I:1:forces:R:3 spacegroup="P 1" unit_cell=conventional occupancy="_JSON {\"0\": {\"B\": 1.0}, \"1\": {\"B\": 1.0}, \"2\": {\"B\": 1.0}, \"3\": {\"B\": 1.0}, \"4\": {\"B\": 1.0}, \"5\": {\"B\": 1.0}, \"6\": {\"B\": 1.0}, \"7\": {\"B\": 1.0}, \"8\": {\"B\": 1.0}, \"9\": {\"B\": 1.0}, \"10\": {\"B\": 1.0}, \"11\": {\"B\": 1.0}, \"12\": {\"B\": 1.0}, \"13\": {\"B\": 1.0}, \"14\": {\"B\": 1.0}, \"15\": {\"B\": 1.0}, \"16\": {\"B\": 1.0}, \"17\": {\"B\": 1.0}, \"18\": {\"B\": 1.0}, \"19\": {\"B\": 1.0}, \"20\": {\"B\": 1.0}, \"21\": {\"B\": 1.0}, \"22\": {\"B\": 1.0}, \"23\": {\"B\": 1.0}, \"24\": {\"B\": 1.0}, \"25\": {\"B\": 1.0}, \"26\": {\"B\": 1.0}, \"27\": {\"B\": 1.0}, \"28\": {\"B\": 1.0}, \"29\": {\"B\": 1.0}, \"30\": {\"B\": 1.0}, \"31\": {\"B\": 1.0}}" energy=-207.95660400390625 stress="-1.1249969005584717 0.06125164404511452 0.46031075716018677 0.06125164404511452 -3.9897396564483643 1.8535943031311035 0.46031075716018677 1.8535943031311035 -2.599388360977173" pbc="T T T"
B        1.67751116       7.05677016       3.09050933        0      -0.42298137      -1.07221634       0.49075065
B        4.23903198       7.55483940       1.10102957        1       0.02891120      -0.08037922      -0.17844943
B        4.89711339       9.84136341       2.42586092        2       0.93051159      -0.70778763       0.56885034
B        3.28638430       7.22410051       3.93307105        3       0.18542647      -0.20066002       0.15586426
B        5.29268162       5.38733641       2.68550390        4      -0.47176927       0.48375271       0.21848421
B        1.36561926       4.27351514       1.52507196        5       0.76773735      -0.32856473       0.16286396
B        4.10678668       4.12906935       3.96814841        6       1.45469334      -0.37986165      -0.07431311
B        2.74612471       8.50156932       0.98610274        7       0.03214854      -0.09549865      -0.32016198
B        3.92741863       2.75977739       2.88028019        8      -0.10197169       0.18049108       0.12044509
B        1.93984241       5.33272294       5.60838223        9      -0.18942077      -0.89481292       0.49375233
B        2.82995437       7.93746404       5.60726586       10      -0.10448723       0.01389744      -0.02091091
B        3.12344464       4.00162025       5.31648218       11      -0.05344777       0.41507583       0.72318152
B        2.29161353       9.49193509       2.32292033       12      -1.29263561      -0.05017652       0.11040849
B        2.74875359       4.92316925       0.51223522       13       0.09686576       0.53842387       0.30103425
B        3.80373034       2.38421320       1.09709292       14      -0.53396274      -0.46719149       0.22945777
B        1.78756117       6.88679151       4.83785542       15       0.00832398       0.25008493      -0.09357546
B        3.37694705       0.94100566       0.00628690       16      -0.22958188       0.14472873      -0.56154537
B        1.27196319       7.65587294       0.14248341       17      -0.08467070       0.08598665       0.37590266
B        3.52084836      10.00528355       3.60309709       18       0.15907884      -0.42224474      -0.79825125
B        2.25400024       2.57161938       2.39777553       19      -0.16818049       0.42846717      -1.06894489
B        4.06086436       5.72117509       1.43887684       20      -0.95710750       0.54627300      -0.06611641
B        2.67002587       6.67982702       0.72275814       21       0.58608803       0.14244697      -0.16261899
B        5.43414187       8.25987981       2.13307954       22      -0.28415697       0.24253854      -0.14918219
B        4.28726230       4.04756590       0.55683106       23       0.26267589       0.16024113       0.17041294
B        3.29251353       9.56171001       5.24932402       24      -0.04278944       0.51279366       0.00985400
B        1.04933504       3.55786114       3.10278935       25      -0.12301885      -0.02147440       0.12252178
B        3.72392319       8.41782148       2.77363797       26       0.74161495       0.90483314      -0.86234649
B        2.35945735       5.74779905       2.10904832       27       0.29321285      -0.37953999      -0.12619510
B        1.60152988       3.79484157       4.68044797       28      -0.99291519       0.18645266       1.38609579
B        4.86617213       6.41595252       4.08248768       29      -0.46225834       0.04192917      -0.82271280
B        3.65804930       5.59018844       3.21148803       30       0.29191444       0.11670197      -0.18638000
B        1.99903170       1.73206362       0.75942191       31       0.67615258      -0.29471035      -0.14817565
